# vtk DataFile Version 2.0

ASCII

DATASET UNSTRUCTURED_GRID
POINTS 1961 double
0.141414 0.052211 0 1 0 0 0.141414 -0.052211 0 20 -20 0 20 20 0 -20 20 0 -20 -20 0 0.1218647324542968 -0.04983776823288528 0 0.102384152979793 -0.04695616588365888 0 0.08300637506446892 -0.04345128176613665 0 0.063800144971298 -0.0391142457302977 0 0.04484903408793741 -0.03377428527547296 0 0.02650386887203772 -0.02666590146907842 0 0.009669304531816216 -0.01662987995385234 0 0.000000000000000009833257050678418 0.0000000004340752140092951 0 0.009669305079819009 0.01662988047917851 0 0.02650386946402183 0.02666590173881092 0 0.04484903460453282 0.03377428543744326 0 0.06380014539326503 0.03911424583508234 0 0.08300637538106337 0.04345128182954149 0 0.1023841531985908 0.04695616591939165 0 0.1218647325549689 0.0498377682463744 0 0.1609047281579101 0.05414658421883311 0 0.1804283273113803 0.0557169534174818 0 0.1999751084161712 0.05696707057987185 0 0.2195379850537885 0.05793386410330144 0 0.2391118260911325 0.05864577384468424 0 0.2586926905785628 0.05912804208965997 0 0.2782775914755676 0.05940239233061158 0 0.2978642499581765 0.05948585938874733 0 0.3174508875244552 0.05939486460292398 0 0.3370361277782917 0.05914343323398076 0 0.3566189123498104 0.05874360576446306 0 0.3761984154330621 0.05820639906569167 0 0.3957740006328723 0.05754153131897423 0 0.4153452680737287 0.05675963400915638 0 0.4349117806816362 0.05586656269922583 0 0.4544733397947016 0.05487083032910207 0 0.4740297613832116 0.05377876243939927 0 0.493580965265036 0.05259694793984462 0 0.5131268971485131 0.05133088899671392 0 0.5326674304461845 0.04998405743607045 0 0.5522027214037138 0.04856316204982195 0 0.5717326295597494 0.0470701127262283 0 0.591257358680798 0.04551078732156096 0 0.6107768343249752 0.04388700973759673 0 0.6302910308879844 0.04220096006836016 0 0.6498001056076803 0.04045664086879954 0 0.6693040073262975 0.03865538994176498 0 0.6888027810809844 0.03679946792651096 0 0.7082964232087287 0.03489037768955001 0 0.727784854777274 0.03292880975664506 0 0.7472680255558588 0.03091565530376678 0 0.76674590209363 0.02885191651904566 0 0.786218463991922 0.02673861609492595 0 0.8056853777034546 0.02457390746056957 0 0.8251467192957795 0.02235966944353492 0 0.8446021883092167 0.02009439499650293 0 0.8640514922438793 0.01777678991005326 0 0.8834945410917424 0.01540729505307505 0 0.9029308743178005 0.01298332099650972 0 0.9223603159926101 0.01050473014621627 0 0.9417823965739694 0.007969093578875631 0 0.9611967140272756 0.005374711539302231 0 0.9806026879664365 0.002718618272939939 0 0.9806026878857417 -0.002718618284114519 0 0.9611967137401454 -0.005374711578137572 0 0.9417823961493192 -0.007969093634942038 0 0.9223603154910218 -0.01050473021097855 0 0.9029308737015527 -0.01298332107418209 0 0.8834945403886061 -0.01540729513977426 0 0.8640514913968697 -0.01777679001204746 0 0.8446021873299003 -0.02009439511183474 0 0.8251467182244826 -0.02235966956684418 0 0.8056853765757526 -0.02457390758745918 0 0.7862184627641278 -0.02673861622981172 0 0.7667459007498659 -0.02885191666317086 0 0.7472680241067817 -0.03091565545535872 0 0.7277848534542166 -0.03292880989160365 0 0.7082964215670358 -0.03489037785264958 0 0.6888027754164272 -0.03679946847366434 0 0.6693040055741412 -0.03865539010592012 0 0.6498001036745252 -0.04045664104457474 0 0.6302910288452233 -0.04220096024805289 0 0.6107768321873971 -0.04388700991883627 0 0.5912573564268475 -0.0455107875056464 0 0.5717326271788685 -0.0470701129124102 0 0.5522027191047612 -0.04856316222124626 0 0.5326674282697695 -0.04998405759027477 0 0.5131268951162036 -0.05133088913264358 0 0.4935809633385859 -0.0525969480606116 0 0.4740297588269024 -0.05377876258802907 0 0.4544733380832246 -0.05487083042056765 0 0.4349117790681368 -0.05586656277718054 0 0.4153452665665855 -0.05675963407371459 0 0.3957739992444459 -0.05754153137041842 0 0.3761984141516542 -0.05820639910505429 0 0.3566189111614515 -0.05874360579306299 0 0.3370361267064777 -0.05914343325203969 0 0.3174508865584239 -0.05939486461143981 0 0.2978642491005115 -0.0594858593890737 0 0.2782775907346767 -0.05940239232401098 0 0.2586926899570974 -0.05912804207782694 0 0.2391118255796885 -0.05864577382918171 0 0.219537984650555 -0.05793386408610927 0 0.1999751081239513 -0.05696707056337841 0 0.1804283271178397 -0.05571695340358218 0 0.160904728060014 -0.05414658421007469 0 20 -17.99999999999753 0 20 -15.99999999999507 0 20 -13.99999999999704 0 20 -12.00000000000345 0 20 -10.00000000000986 0 20 -8.000000000016279 0 20 -6.000000000022689 0 20 -4.000000000028962 0 20 -2.00000000002705 0 20 -0.00000000002458122594362067 0 20 1.999999999977888 0 20 3.999999999980346 0 20 5.999999999982819 0 20 7.999999999985285 0 20 9.99999999998775 0 20 11.99999999999022 0 20 13.99999999999266 0 20 15.9999999999951 0 20 17.99999999999756 0 -20 17.99999999999753 0 -20 15.99999999999507 0 -20 13.99999999999704 0 -20 12.00000000000345 0 -20 10.00000000000986 0 -20 8.000000000016279 0 -20 6.000000000022689 0 -20 4.000000000028962 0 -20 2.00000000002705 0 -20 0.00000000002458122594362067 0 -20 -1.999999999977888 0 -20 -3.999999999980346 0 -20 -5.999999999982819 0 -20 -7.999999999985285 0 -20 -9.99999999998775 0 -20 -11.99999999999022 0 -20 -13.99999999999266 0 -20 -15.9999999999951 0 -20 -17.99999999999756 0 -17.99999999999753 -20 0 -15.99999999999507 -20 0 -13.99999999999704 -20 0 -12.00000000000345 -20 0 -10.00000000000986 -20 0 -8.000000000016279 -20 0 -6.000000000022689 -20 0 -4.000000000028962 -20 0 -2.00000000002705 -20 0 -0.00000000002458122594362067 -20 0 1.999999999977888 -20 0 3.999999999980346 -20 0 5.999999999982819 -20 0 7.999999999985285 -20 0 9.99999999998775 -20 0 11.99999999999022 -20 0 13.99999999999266 -20 0 15.9999999999951 -20 0 17.99999999999756 -20 0 17.99999999999753 20 0 15.99999999999507 20 0 13.99999999999704 20 0 12.00000000000345 20 0 10.00000000000986 20 0 8.000000000016279 20 0 6.000000000022689 20 0 4.000000000028962 20 0 2.00000000002705 20 0 0.00000000002458122594362067 20 0 -1.999999999977888 20 0 -3.999999999980346 20 0 -5.999999999982819 20 0 -7.999999999985285 20 0 -9.99999999998775 20 0 -11.99999999999022 20 0 -13.99999999999266 20 0 -15.9999999999951 20 0 -17.99999999999756 20 0 -18.33001428416821 6.977341366070243 0 -18.22706017490377 -6.758659262334021 0 -6.805574790324885 -18.22307836331987 0 -6.986478046802631 18.3025114506049 0 6.844245664780898 18.36923293376155 0 7.046910126665145 -18.50334496959527 0 18.09015902177758 -7.316249363692514 0 18.06920475056582 7.089782573011719 0 -18.45619450394427 -0.9113548736934327 0 -1.000000000025816 -18.26794919242923 0 -0.7545127541763359 18.16456842485495 0 18.29079906241506 -0.9224635432025653 0 -18.37540783850671 13.0923630866275 0 -13.00000000000025 -18.26794919243668 0 18.29910112667089 -13.22681948696315 0 12.87244970479202 18.05917572293945 0 13.2862377651623 -18.06844112503519 0 -18.56025707538286 -12.79135880396386 0 18.44633585884167 13.04845766210119 0 -13.21229319704157 18.17930786321391 0 18.28552863007424 2.885367287065005 0 2.902127004219806 -18.46896025348601 0 2.801729075818891 18.18972571351952 0 -18.24579966523534 3.121706215272944 0 16.96193467358399 18.52992786041468 0 -17.04917856738182 -18.38136372526101 0 18.38992419407894 -16.77948298026726 0 -18.31631576550348 16.91839608438278 0 18.32546090238974 0.9684296710771779 0 16.76035869497193 1.931101333131707 0 16.6355042790165 3.595621313952265 0 15.29441707320684 2.783342771750391 0 15.16384746183049 4.281232505289247 0 13.95600305732081 3.442101757049706 0 14.00621111715273 2.036981307081189 0 12.78081034232494 2.618889532225306 0 12.79200298941412 1.365573369231023 0 11.67444771672564 1.918461042543313 0 11.70530435205231 0.7500160963208785 0 10.6937780282378 1.301104171710963 0 10.72244710726127 0.1744546760703015 0 10.61518366502928 2.403216921601683 0 9.722119706990112 1.818643239083821 0 9.6427211018779 2.855455576168413 0 8.795955359655654 2.295231547075463 0 8.728036152592184 3.274552878392374 0 7.838597870031109 2.625811630300504 0 8.12049001911154 1.709712503009543 0 7.840905095724801 3.654925323946057 0 7.074388239909678 3.168853704158686 0 0.8167523799250365 0.04091335571939741 0 7.023816719581149 4.075611079058065 0 6.290566531019651 3.597143959597676 0 6.231482862543388 4.461015167729503 0 5.533981714635134 3.987979736068628 0 5.466587165018787 4.826160939944163 0 4.805403354860024 4.348134291391617 0 4.726353153975496 5.18163843211876 0 4.068520290097223 4.717808423132897 0 0.5044754581789053 0.0693054447971737 0 0.6425595023440982 0.05590833329831726 0 3.996131541094837 5.535682081018611 0 3.327643479257336 5.092072676119865 0 6.899808738630207 5.027062437634996 0 5.616064214896241 3.1877892576643 0 3.264330891999043 5.884586869676249 0 2.618329273468922 5.447699926290637 0 2.550676268095642 6.241985000685379 0 1.892872781043155 5.791456704256891 0 1.815975625761883 6.613256705034331 0 1.150331522614858 6.139561314082322 0 1.228549353645839 5.348666789876882 0 0.5019042787541058 5.662325631792113 0 0.3986795818110963 6.473390971902162 0 -0.276158055735844 5.966761857405 0 -0.4070111571928791 6.834017709510748 0 -1.117648988591963 6.293362662620527 0 3.988063151148072 6.334525809092485 0 -0.9255309461463824 5.313648163538837 0 -1.801921786285995 5.726572192226964 0 -1.700696137919953 4.856329276082125 0 -2.477394705261293 5.186014285868337 0 -2.354483423663358 4.362238576826829 0 -3.142151972772384 4.664485473782646 0 -3.014744299661805 3.850552257861779 0 -3.785676935286949 4.130903532361329 0 -3.689272789285224 3.200162692141909 0 -4.066966902252758 4.982871223035134 0 -4.435931543760087 3.583642335154422 0 -4.424360398273241 2.757654980534403 0 -5.099541674269366 3.099829919681748 0 -5.015885545750502 2.257000086069416 0 -5.772278915335392 2.576634080607914 0 -5.67913132387539 1.734595455870606 0 -4.77989340593946 1.420478826580082 0 -5.531383017884453 0.9155073951341387 0 -4.7407974702193 0.6105612626604364 0 -5.35306165556433 0.12348337
[...]
POINT_DATA 1961

CELL_DATA 3738

SCALARS Density double 1
LOOKUP_TABLE default
1 1 1 1 1 1 1 1 1 1 1 1 1 1 1 1 1 1 1 1 1 1 1 1 1 1 1 1 1 1 1 1 1 1 1 1 1 1 1 1 1 1 1 1 1 1 1 1 1 1 1 1 1 1 1 1 1 1 1 1 1 1 1 1 1 1 1 1 1 1 1 1 1 1 1 1 1 1 1 1 1 1 1 1 1 1 1 1 1 1 1 1 1 1 1 1 1 1 1 1 1 1 1 1 1 1 1 1 1 1 1 1 1 1 1 1 1 1 1 1 1 1 1 1 1 1 1 1 1 1 1 1 1 1 1 1 1 1 1 1 1 1 1 1 1 1 1 1 1 1 1 1 1 1 1 1 1 1 1 1 1 1 1 1 1 1 1 1 1 1 1 1 1 1 1 1 1 1 1 1 1 1 1 1 1 1 1 1 1 1 1 1 1 1 1 1 1 1 1 1 1 1 1 1 1 1 1 1 1 1 1 1 1 1 1 1 1 1 1 1 1 1 1 1 1 1 1 1 1 1 1 1 1 1 1 1 1 1 1 1 1 1 1 1 1 1 1 1 1 1 1 1 1 1 1 1 1 1 1 1 1 1 1 1 1 1 1 1 1 1 1 1 1 1 1 1 1 1 1 1 1 1 1 1 1 1 1 1 1 1 1 1 1 1 1 1 1 1 1 1 1 1 1 1 1 1 1 1 1 1 1 1 1 1 1 1 1 1 1 1 1 1 1 1 1 1 1 1 1 1 1 1 1 1 1 1 1 1 1 1 1 1 1 1 1 1 1 1 1 1 1 1 1 1 1 1 1 1 1 1 1 1 1 1 1 1 1 1 1 1 1 1 1 1 1 1 1 1 1 1 1 1 1 1 1 1 1 1 1 1 1 1 1 1 1 1 1 1 1 1 1 1 1 1 1 1 1 1 1 1 1 1 1 1 1 1 1 1 1 1 1 1 1 1 1 1 1 1 1 1 1 1 1 1 1 1 1 1 1 1 1 1 1 1 1 1 1 1 1 1 1 1 1 1 1 1 1 1 1 1 1 1 1 1 1 1 1 1 1 1 1 1 1 1 1 1 1 1 1 1 1 1 1 1 1 1 1 1 1 1 1 1 1 1 1 1 1 1 1 1 1 1 1 1 1 1 1 1 1 1 1 1 1 1 1 1 1 1 1 1 1 1 1 1 1 1 1 1 1 1 1 1 1 1 1 1 1 1 1 1 1 1 1 1 1 1 1 1 1 1 1 1 1 1 1 1 1 1 1 1 1 1 1 1 1 1 1 1 1 1 1 1 1 1 1 1 1 1 1 1 1 1 1 1 1 1 1 1 1 1 1 1 1 1 1 1 1 1 1 1 1 1 1 1 1 1 1 1 1 1 1 1 1 1 1 1 1 1 1 1 1 1 1 1 1 1 1 1 1 1 1 1 1 1 1 1 1 1 1 1 1 1 1 1 1 1 1 1 1 1 1 1 1 1 1 1 1 1 1 1 1 1 1 1 1 1 1 1 1 1 1 1 1 1 1 1 1 1 1 1 1 1 1 1 1 1 1 1 1 1 1 1 1 1 1 1 1 1 1 1 1 1 1 1 1 1 1 1 1 1 1 1 1 1 1 1 1 1 1 1 1 1 1 1 1 1 1 1 1 1 1 1 1 1 1 1 1 1 1 1 1 1 1 1 1 1 1 1 1 1 1 1 1 1 1 1 1 1 1 1 1 1 1 1 1 1 1 1 1 1 1 1 1 1 1 1 1 1 1 1 1 1 1 1 1 1 1 1 1 1 1 1 1 1 1 1 1 1 1 1 1 1 1 1 1 1 1 1 1 1 1 1 1 1 1 1 1 1 1 1 1 1 1 1 1 1 1 1 1 1 1 1 1 1 1 1 1 1 1 1 1 1 1 1 1 1 1 1 1 1 1 1 1 1 1 1 1 1 1 1 1 1 1 1 1 1 1 1 1 1 1 1 1 1 1 1 1 1 1 1 1 1 1 1 1 1 1 1 1 1 1 1 1 1 1 1 1 1 1 1 1 1 1 1 1 1 1 1 1 1 1 1 1 1 1 1 1 1 1 1 1 1 1 1 1 1 1 1 1 1 1 1 1 1 1 1 1 1 1 1 1 1 1 1 1 1 1 1 1 1 1 1 1 1 1 1 1 1 1 1 1 1 1 1 1 1 1 1 1 1 1 1 1 1 1 1 1 1 1 1 1 1 1 1 1 1 1 1 1 1 1 1 1 1 1 1 1 1 1 1 1 1 1 1 1 1 1 1 1 1 1 1 1 1 1 1 1 1 1 1 1 1 1 1 1 1 1 1 1 1 1 1 1 1 1 1 1 1 1 1 1 1 1 1 1 1 1 1 1 1 1 1 1 1 1 1 1 1 1 1 1 1 1 1 1 1 1 1 1 1 1 1 1 1 1 1 1 1 1 1 1 1 1 1 1 1 1 1 1 1 1 1 1 1 1 1 1 1 1 1 1 1 1 1 1 1 1 1 1 1 1 1 1 1 1 1 1 1 1 1 1 1 1 1 1 1 1 1 1 1 1 1 1 1 1 1 1 1 1 1 1 1 1 1 1 1 1 1 1 1 1 1 1 1 1 1 1 1 1 1 1 1 1 1 1 1 1 1 1 1 1 1 1 1 1 1 1 1 1 1 1 1 1 1 1 1 1 1 1 1 1 1 1 1 1 1 1 1 1 1 1 1 1 1 1 1 1 1 1 1 1 1 1 1 1 1 1 1 1 1 1 1 1 1 1 1 1 1 1 1 1 1 1 1 1 1 1 1 1 1 1 1 1 1 1 1 1 1 1 1 1 1 1 1 1 1 1 1 1 1 1 1 1 1 1 1 1 1 1 1 1 1 1 1 1 1 1 1 1 1 1 1 1 1 1 1 1 1 1 1 1 1 1 1 1 1 1 1 1 1 1 1 1 1 1 1 1 1 1 1 1 1 1 1 1 1 1 1 1 1 1 1 1 1 1 1 1 1 1 1 1 1 1 1 1 1 1 1 1 1 1 1 1 1 1 1 1 1 1 1 1 1 1 1 1 1 1 1 1 1 1 1 1 1 1 1 1 1 1 1 1 1 1 1 1 1 1 1 1 1 1 1 1 1 1 1 1 1 1 1 1 1 1 1 1 1 1 1 1 1 1 1 1 1 1 1 1 1 1 1 1 1 1 1 1 1 1 1 1 1 1 1 1 1 1 1 1 1 1 1 1 1 1 1 1 1 1 1 1 1 1 1 1 1 1 1 1 1 1 1 1 1 1 1 1 1 1 1 1 1 1 1 1 1 1 1 1 1 1 1 1 1 1 1 1 1 1 1 1 1 1 1 1 1 1 1 1 1 1 1 1 1 1 1 1 1 1 1 1 1 1 1 1 1 1 1 1 1 1 1 1 1 1 1 1 1 1 1 1 1 1 1 1 1 1 1 1 1 1 1 1 1 1 1 1 1 1 1 1 1 1 1 1 1 1 1 1 1 1 1 1 1 1 1 1 1 1 1 1 1 1 1 1 1 1 1 1 1 1 1 1 1 1 1 1 1 1 1 1 1 1 1 1 1 1 1 1 1 1 1 1 1 1 1 1 1 1 1 1 1 1 1 1 1 1 1 1 1 1 1 1 1 1 1 1 1 1 1 1 1 1 1 1 1 1 1 1 1 1 1 1 1 1 1 1 1 1 1 1 1 1 1 1 1 1 1 1 1 1 1 1 1 1 1 1 1 1 1 1 1 1 1 1 1 1 1 1 1 1 1 1 1 1 1 1 1 1 1 1 1 1 1 1 1 1 1 1 1 1 1 1 1 1 1 1 1 1 1 1 1 1 1 1 1 1 1 1 1 1 1 1 1 1 1 1 1 1 1 1 1 1 1 1 1 1 1 1 1 1 1 1 1 1 1 1 1 1 1 1 1 1 1 1 1 1 1 1 1 1 1 1 1 1 1 1 1 1 1 1 1 1 1 1 1 1 1 1 1 1 1 1 1 1 1 1 1 1 1 1 1 1 1 1 1 1 1 1 1 1 1 1 1 1 1 1 1 1 1 1 1 1 1 1 1 1 1 1 1 1 1 1 1 1 1 1 1 1 1 1 1 1 1 1 1 1 1 1 1 1 1 1 1 1 1 1 1 1 1 1 1 1 1 1 1 1 1 1 1 1 1 1 1 1 1 1 1 1 1 1 1 1 1 1 1 1 1 1 1 1 1 1 1 1 1 1 1 1 1 1 1 1 1 1 1 1 1 1 1 1 1 1 1 1 1 1 1 1 1 1 1 1 1 1 1 1 1 1 1 1 1 1 1 1 1 1 1 1 1 1 1 1 1 1 1 1 1 1 1 1 1 1 1 1 1 1 1 1 1 1 1 1 1 1 1 1 1 1 1 1 1 1 1 1 1 1 1 1 1 1 1 1 1 1 1 1 1 1 1 1 1 1 1 1 1 1 1 1 1 1 1 1 1 1 1 1 1 1 1 1 1 1 1 1 1 1 1 1 1 1 1 1 1 1 1 1 1 1 1 1 1 1 1 1 1 1 1 1 1 1 1 1 1 1 1 1 1 1 1 1 1 1 1 1 1 1 1 1 1 1 1 1 1 1 1 1 1 1 1 1 1 1 1 1 1 1 1 1 1 1 1 1 1 1 1 1 1 1 1 1 1 1 1 1 1 1 1 1 1 1 1 1 1 1 1 1 1 1 1 1 1 1 1 1 1 1 1 1 1 1 1 1 1 1 1 1 1 1 1 1 1 1 1 1 1 1 1 1 1 1 1 1 1 1 1 1 1 1 1 1 1 1 1 1 1 1 1 1 1 1 1 1 1 1 1 1 1 1 1 1 1 1 1 1 1 1 1 1 1 1 1 1 1 1 1 1 1 1 1 1 1 1 1 1 1 1 1 1 1 1 1 1 1 1 1 1 1 1 1 1 1 1 1 1 1 1 1 1 1 1 1 1 1 1 1 1 1 1 1 1 1 1 1 1 1 1 1 1 1 1 1 1 1 1 1 1 1 1 1 1 1 1 1 1 1 1 1 1 1 1 1 1 1 1 1 1 1 1 1 1 1 1 1 1 1 1 1 1 1 1 1 1 1 1 1 1 1 1 1 1 1 1 1 1 1 1 1 1 1 1 1 1 1 1 1 1 1 1 1 1 1 1 1 1 1 1 1 1 1 1 1 1 1 1 1 1 1 1 1 1 1 1 1 1 1 1 1 1 1 1 1 1 1 1 1 1 1 1 1 1 1 1 1 1 1 1 1 1 1 1 1 1 1 1 1 1 1 1 1 1 1 1 1 1 1 1 1 1 1 1 1 1 1 1 1 1 1 1 1 1 1 1 1 1 1 1 1 1 1 1 1 1 1 1 1 1 1 1 1 1 1 1 1 1 1 1 1 1 1 1 1 1 1 1 1 1 1 1 1 1 1 1 1 1 1 1 1 1 1 1 1 1 1 1 1 1 1 1 1 1 1 1 1 1 1 1 1 1 1 1 1 1 1 1 1 1 1 1 1 1 1 1 1 1 1 1 1 1 1 1 1 1 1 1 1 1 1 1 1 1 1 1 1 1 1 1 1 1 1 1 1 1 1 1 1 1 1 1 1 1 1 1 1 1 1 1 1 1 1 1 1 1 1 1 1 1 1 1 1 1 1 1 1 1 1 1 1 1 1 1 1 1 1 1 1 1 1 1 1 1 1 1 1 1 1 1 1 1 1 1 1 1 1 1 1 1 1 1 1 1 1 1 1 1 1 1 1 1 1 1 1 1 1 1 1 1 1 1 1 1 1 1 1 1 1 1 1 1 1 1 1 1 1 1 1 1 1 1 1 1 1 1 1 1 1 1 1 1 1 1 1 1 1 1 1 1 1 1 1 1 1 1 1 1 1 1 1 1 1 1 1 1 1 1 1 1 1 1 1 1 1 1 1 1 1 1 1 1 1 1 1 1 1 1 1 1 1 1 1 1 1 1 1 1 1 1 1 1 1 1 1 1 1 1 1 1 1 1 1 1 1 1 1 1 1 1 1 1 1 1 1 1 1 1 1 1 1 1 1 1 1 1 1 1 1 1 1 1 1 1 1 1 1 1 1 1 1 1 1 1 1 1 1 1 1 1 1 1 1 1 1 1 1 1 1 1 1 1 1 1 1 1 1 1 1 1 1 1 1 1 1 1 1 1 1 1 1 1 1 1 1 1 1 1 1 1 1 1 1 1 1 1 1 1 1 1 1 1 1 1 1 1 1 1 1 1 1 1 1 1 1 1 1 1 1 1 1 1 1 1 1 1 1 1 1 1 1 1 1 1 1 1 1 1 1 1 1 1 1 1 1 1 1 1 1 1 1 1 1 1 1 1 1 1 1 1 1 1 1 1 1 1 1 1 1 1 1 1 1 1 1 1 1 1 1 1 1 1 1 1 1 1 1 1 1 1 1 1 1 1 1 1 1 1 1 1 1 1 1 1 1 1 1 1 1 1 1 1 1 1 1 1 1 1 1 1 1 1 1 1 1 1 1 1 1 1 1 1 1 1 1 1 1 1 1 1 1 1 1 1 1 1 1 1 1 1 1 1 1 1 1 1 1 1 1 1 1 1 1 1 1 1 1 1 1 1 1 1 1 1 1 1 1 1 1 1 1 1 1 1 1 1 1 1 1 1 1 1 1 1 1 1 1 1 1 1 1 1 1 1 1 1 1 1 1 1 1 1 1 1 1 1 1 1 1 1 1 1 1 1 1 1 1 1 1 1 1 1 1 1 1 1 1 1 1 1 1 1 1 1 1 1 1 1 1 1 1 1 1 1 1 1 1 1 1 1 1 1 1 1 1 1 1 1 1 1 1 1 1 1 1 1 1 1 1 1 1 1 1 1 1 1 1 1 1 1 1 1 1 1 1 1 1 1 1 1 1 1 1 1 1 1 1 1 1 1 1 1 1 1 1 1 1 1 1 1 1 1 1 1 1 1 1 1 1 1 1 1 1 1 1 1 1 1 1 1 1 1 1 1 1 1 1 1 1 1 1 1 1 1 1 1 1 1 1 1 1 1 1 1 1 1 1 1 1 1 1 1 1 1 1 1 1 1 1 1 1 1 1 1 1 1 1 1 1 1 1 1 1 1 1 1 1 1 1 1 1 1 1 1 1 1 1 1 1 1 1 1 1 1 1 1 1 1 1 1 1 1 1 1 1 1 1 1 1 1 1 1 1 1 1 1 1 1 1 1 1 1 1 1 1 1 1 1 1 1 1 1 1 1 1 1 1 1 1 1 1 1 1 1 1 1 1 1 1 1 1 1 1 1 1 1 1 1 1 1 1 1 1 1 1 1 1 1 1 1 1 1 1 1 1 1 1 1 1 1 1 1 1 1 1 1 1 1 1 1 1 1 1 1 1 1 1 1 1 1 1 1 1 1 1 1 1 1 1 1 1 1 1 1 1 1 1 1 1 1 1 1 1 1 1 1 1 1 1 1 1 1 1 1 1 1 1 1 1 1 1 1 1 1 1 1 1 1 1 1 1 1 1 1 1 1 1 1 1 1 1 1 1 1 1 1 1 1 1 1 1 1 1 1 1 1 1 1 1 1 1 1 1 1 1 1 1 1 1 1 1 1 1 1 1 1 1 1 1 1 1 1 1 1 1 1 1 1 1 1 1 1 1 1 1 1 1 1 1 1 1 1 1 1 1 1 1 1 1 1 1 1 1 1 1 1 1 1 1 1 1 1 1 1 1 1 1 1 1 1 1 1 1 1 1 1 1 1 1 1 1 1 1 1 1 1 1 1 1 1 1 1 1 1 1 1 1 1 1 1 1 1 1 1 1 1 1 1 1 1 1 1 1 1 1 1 1 1 1 1 1 1 1 1 1 1 1 1 1 1 1 1 1 1 1 1 1 1 1 1 1 1 1 1 1 1 1 1 1 1 1 1 1 1 1 1 1 1 1 1 1 1 1 1 1 1 1 1 1 1 1 1 1 1 1 1 1 1 1 1 1 1 1 1 1 1 1 1 1 1 1 1 1 1 1 1 1 1 1 1 1 1 1 1 1 1 1 1 1 1 1 1 1 1 1 1 1 1 1 1 1 1 1 1 1 1 1 1 1 1 1 1 1 1 1 1 1 1 1 1 1 1 1 1 1 1 1 1 1 1 1 1 1 1 1 1 1 1 1 1 1 1 1 1 1 1 1 1 1 1 1 1 1 1 1 1 1 1 1 1 1 1 1 1 1 1 1 1 1 1 1 1 1 1 1 1 1 1 1 1 1 1 1 1 1 1 1 1 1 1 1 1 1 1 1 1 1 1 1 1 1 1 1 1 1 1 1 1 1 1 1 1 1 1 1 1 1 1 1 1 1 1 1 1 1 1 1 1 1 1 1 1 1 1 1 1 1 1 1 1 1 1 1 1 1 1 1 1 1 1 1 1 1

VECTORS Velocity double
300 0 0 300.00000000000006 0 0 300 0 0 300 0 0 300.00000000000006 0 0 300 0 0 300 0 0 300 0 0 300 0 0 300.00000000000006 0 0 300 0 0 300 0 0 299.99999999999994 0 0 300 0 0 299.99999999999994 0 0 300 0 0 300.00000000000006 0 0 300.00000000000006 0 0 300 0 0 300 0 0 300.00000000000006 0 0 299.99999999999994 0 0 300 0 0 300 0 0 300 0 0 300 0 0 300 0 0 299.9999999999999 0 0 300.00000000000006 0 0 300.00000000000006 0 0 300.00000000000006 0 0 300 0 0 300.00000000000006 0 0 299.99999999999994 0 0 300 0 0 300 0 0 299.99999999999994 0 0 300.00000000000006 0 0 299.99999999999994 0 0 300 0 0 300 0 0 299.99999999999994 0 0 300 0 0 299.99999999999994 0 0 300 0 0 300 0 0 300 0 0 300.00000000000006 0 0 300 0 0 300 0 0 300.00000000000006 0 0 300 0 0 300 0 0 299.99999999999994 0 0 300 0 0 300 0 0 300 0 0 300 0 0 300.00000000000006 0 0 300 0 0 300.00000000000006 0 0 300 0 0 300 0 0 300 0 0 300 0 0 300 0 0 299.99999999999994 0 0 300 0 0 300 0 0 300 0 0 299.99999999999994 0 0 300 0 0 299.99999999999994 0 0 299.99999999999994 0 0 300 0 0 300 0 0 300.00000000000006 0 0 300 0 0 300 0 0 299.99999999999994 0 0 299.99999999999994 0 0 299.99999999999994 0 0 299.99999999999994 0 0 300 0 0 300 0 0 299.99999999999994 0 0 300 0 0 299.99999999999994 0 0 300 0 0 300 0 0 300 0 0 300.00000000000006 0 0 300 0 0 300 0 0 300.00000000000006 0 0 299.99999999999994 0 0 300 0 0 300.00000000000006 0 0 300.00000000000006 0 0 300 0 0 299.99999999999994 0 0 300 0 0 299.99999999999994 0 0 300 0 0 300 0 0 299.99999999999994 0 0 300 0 0 300 0 0 300 0 0 300 0 0 300 0 0 300 0 0 300 0 0 299.99999999999994 0 0 300 0 0 299.99999999999994 0 0 300 0 0 300.00000000000006 0 0 300 0 0 300.00000000000006 0 0 300.00000000000006 0 0 300 0 0 299.99999999999994 0 0 299.99999999999994 0 0 300 0 0 300 0 0 299.99999999999994 0 0 300.00000000000006 0 0 300 0 0 300 0 0 300 0 0 300.00000000000006 0 0 300 0 0 300 0 0 300.00000000000006 0 0 299.99999999999994 0 0 300 0 0 300.00000000000006 0 0 299.99999999999994 0 0 300 0 0 300 0 0 299.99999999999994 0 0 300 0 0 300 0 0 300.00000000000006 0 0 300.00000000000006 0 0 299.99999999999994 0 0 300.00000000000006 0 0 300 0 0 300 0 0 300.00000000000006 0 0 300 0 0 300 0 0 300 0 0 300 0 0 300 0 0 299.99999999999994 0 0 300 0 0 299.99999999999994 0 0 300.00000000000006 0 0 299.99999999999994 0 0 299.99999999999994 0 0 300.00000000000006 0 0 300 0 0 299.99999999999994 0 0 299.99999999999994 0 0 300 0 0 300 0 0 300 0 0 300 0 0 299.99999999999994 0 0 300.00000000000006 0 0 299.99999999999994 0 0 300.00000000000006 0 0 299.99999999999994 0 0 300 0 0 300 0 0 300 0 0 300 0 0 300.00000000000006 0 0 300 0 0 299.99999999999994 0 0 300 0 0 300.00000000000006 0 0 299.99999999999994 0 0 300 0 0 300 0 0 300 0 0 299.99999999999994 0 0 300 0 0 299.99999999999994 0 0 300 0 0 300 0 0 300 0 0 299.99999999999994 0 0 300 0 0 300 0 0 299.99999999999994 0 0 300 0 0 299.99999999999994 0 0 300 0 0 300.00000000000006 0 0 300.00000000000006 0 0 300 0 0 299.99999999999994 0 0 300 0 0 300 0 0 300.00000000000006 0 0 299.99999999999994 0 0 300 0 0 300.00000000000006 0 0 299.99999999999994 0 0 300 0 0 300 0 0 300 0 0 300.00000000000006 0 0 299.99999999999994 0 0 300 0 0 299.99999999999994 0 0 300.00000000000006 0 0 300.00000000000006 0 0 300 0 0 300 0 0 300 0 0 300 0 0 300 0 0 300 0 0 300 0 0 300 0 0 300.00000000000006 0 0 300.00000000000006 0 0 299.99999999999994 0 0 300.00000000000006 0 0 299.99999999999994 0 0 300 0 0 300 0 0 300 0 0 300 0 0 300 0 0 299.99999999999994 0 0 299.99999999999994 0 0 300 0 0 299.99999999999994 0 0 299.99999999999994 0 0 300 0 0 299.99999999999994 0 0 300.00000000000006 0 0 300 0 0 300 0 0 300 0 0 299.99999999999994 0 0 300.00000000000006 0 0 299.99999999999994 0 0 300.00000000000006 0 0 300.00000000000006 0 0 300 0 0 299.99999999999994 0 0 300.00000000000006 0 0 300 0 0 300.00000000000006 0 0 300 0 0 300 0 0 300 0 0 300 0 0 300 0 0 300.00000000000006 0 0 300.0000000000001 0 0 300 0 0 299.99999999999994 0 0 300 0 0 300 0 0 300.00000000000006 0 0 300 0 0 299.99999999999994 0 0 300.00000000000006 0 0 300 0 0 299.99999999999994 0 0 299.99999999999994 0 0 300 0 0 299.99999999999994 0 0 300 0 0 300.00000000000006 0 0 300 0 0 299.99999999999994 0 0 300.00000000000006 0 0 300 0 0 300 0 0 299.99999999999994 0 0 300 0 0 300 0 0 300 0 0 300.00000000000006 0 0 300.00000000000006 0 0 300.00000000000006 0 0 300.00000000000006 0 0 300 0 0 299.99999999999994 0 0 299.99999999999994 0 0 300 0 0 300 0 0 300 0 0 300 0 0 300 0 0 300.00000000000006 0 0 300 0 0 299.99999999999994 0 0 300 0 0 300 0 0 300 0 0 300 0 0 300 0 0 300 0 0 300 0 0 300 0 0 299.99999999999994 0 0 300 0 0 300 0 0 299.99999999999994 0 0 300 0 0 300.00000000000006 0 0 300 0 0 299.99999999999994 0 0 300 0 0 299.99999999999994 0 0 300 0 0 299.99999999999994 0 0 300 0 0 300 0 0 299.99999999999994 0 0 299.99999999999994 0 0 300 0 0 300.00000000000006 0 0 299.99999999999994 0 0 300 0 0 299.99999999999994 0 0 300 0 0 300.00000000000006 0 0 299.99999999999994 0 0 300 0 0 300 0 0 299.99999999999994 0 0 300 0 0 300 0 0 300.00000000000006 0 0 300.00000000000006 0 0 300 0 0 300 0 0 300 0 0 299.99999999999994 0 0 300 0 0 299.99999999999994 0 0 299.99999999999994 0 0 299.99999999999994 0 0 300.00000000000006 0 0 299.99999999999994 0 0 300 0 0 299.99999999999994 0 0 300 0 0 299.99999999999994 0 0 299.99999999999994 0 0 300 0 0 300.00000000000006 0 0 299.99999999999994 0 0 299.99999999999994 0 0 299.99999999999994 0 0 300 0 0 299.99999999999994 0 0 300.00000000000006 0 0 299.99999999999994 0 0 300 0 0 300.00000000000006 0 0 300.00000000000006 0 0 300 0 0 300 0 0 300 0 0 300 0 0 300 0 0 300 0 0 300 0 0 300.00000000000006 0 0 300 0 0 300 0 0 300 0 0 300 0 0 300 0 0 300 0 0 300 0 0 300 0 0 299.99999999999994 0 0 300 0 0 300.00000000000006 0 0 300 0 0 300.00000000000006 0 0 300.00000000000006 0 0 300 0 0 299.99999999999994 0 0 300 0 0 300.00000000000006 0 0 300 0 0 300.00000000000006 0 0 300.00000000000006 0 0 300.00000000000006 0 0 300 0 0 300 0 0 300 0 0 300 0 0 299.99999999999994 0 0 299.99999999999994 0 0 300 0 0 300 0 0 300.00000000000006 0 0 300.00000000000006 0 0 300 0 0 300 0 0 300.00000000000006 0 0 300.00000000000006 0 0 300.00000000000006 0 0 300 0 0 300 0 0 300 0 0 300 0 0 300 0 0 300.00000000000006 0 0 300 0 0 300 0 0 300 0 0 300 0 0 299.99999999999994 0 0 300 0 0 300 0 0 300.00000000000006 0 0 299.99999999999994 0 0 299.99999999999994 0 0 300 0 0 300 0 0 300 0 0 300 0 0 300 0 0 300 0 0 300 0 0 300 0 0 300.00000000000006 0 0 300 0 0 300 0 0 300 0 0 299.99999999999994 0 0 299.99999999999994 0 0 300.00000000000006 0 0 300 0 0 300 0 0 300 0 0 299.99999999999994 0 0 300 0 0 300 0 0 300 0 0 299.99999999999994 0 0 300 0 0 300 0 0 300 0 0 300 0 0 300 0 0 299.99999999999994 0 0 300.00000000000006 0 0 299.99999999999994 0 0 300 0 0 300 0 0 300 0 0 299.99999999999994 0 0 300 0 0 300 0 0 299.99999999999994 0 0 300.00000000000006 0 0 300 0 0 299.99999999999994 0 0 300 0 0 300 0 0 300 0 0 300 0 0 300 0 0 300 0 0 300 0 0 300 0 0 299.99999999999994 0 0 300 0 0 299.99999999999994 0 0 300 0 0 300 0 0 300 0 0 300 0 0 299.99999999999994 0 0 300 0 0 300 0 0 300 0 0 299.99999999999994 0 0 300 0 0 299.99999999999994 0 0 300 0 0 299.99999999999994 0 0 299.99999999999994 0 0 300 0 0 300 0 0 300 0 0 300 0 0 300.00000000000006 0 0 300 0 0 300 0 0 299.99999999999994 0 0 300 0 0 300 0 0 300 0 0 300 0 0 300 0 0 300 0 0 300.00000000000006 0 0 300 0 0 299.99999999999994 0 0 299.99999999999994 0 0 299.99999999999994 0 0 300.00000000000006 0 0 300.00000000000006 0 0 300 0 0 300 0 0 300 0 0 300.00000000000006 0 0 300 0 0 300 0 0 300 0 0 300 0 0 300 0 0 300 0 0 300 0 0 300 0 0 300 0 0 300 0 0 300 0 0 300 0 0 300.00000000000006 0 0 300 0 0 299.99999999999994 0 0 299.99999999999994 0 0 300 0 0 300.00000000000006 0 0 299.99999999999994 0 0 299.99999999999994 0 0 300 0 0 300 0 0 300 0 0 300 0 0 300 0 0 300 0 0 300 0 0 300 0 0 299.99999999999994 0 0 300 0 0 300 0 0 299.99999999999994 0 0 300 0 0 300 0 0 299.99999999999994 0 0 300 0 0 300.00000000000006 0 0 300.00000000000006 0 0 300 0 0 300 0 0 300 0 0 300 0 0 300 0 0 300 0 0 300 0 0 300.00000000000006 0 0 300 0 0 300.00000000000006 0 0 300 0 0 300 0 0 300 0 0 299.99999999999994 0 0 300.00000000000006 0 0 300 0 0 299.99999999999994 0 0 300 0 0 300.00000000000006 0 0 300 0 0 300 0 0 300 0 0 300 0 0 300 0 0 300 0 0 300 0 0 299.99999999999994 0 0 300 0 0 300 0 0 300 0 0 300 0 0 299.99999999999994 0 0 300 0 0 300.00000000000006 0 0 300 0 0 299.99999999999994 0 0 300 0 0 300 0 0 299.99999999999994 0 0 299.99999999999994 0 0 299.99999999999994 0 0 300 0 0 299.99999999999994 0 0 300 0 0 300 0 0 299.99999999999994 0 0 300 0 0 300 0 0 299.99999999999994 0 0 300 0 0 299.99999999999994 0 0 300 0 0 300 0 0 300 0 0 299.99999999999994 0 0 300 0 0 300 0 0 300 0 0 300 0 0 300.00000000000006 0 0 299.99999999999994 0 0 300 0 0 300 0 0 300.00000000000006 0 0 299.99999999999994 0 0 300 0 0 300 0 0 300.00000000000006 0 0 299.99999999999994 0 0 300 0 0 300.00000000000006 0 0 300 0 0 300.00000000000006 0 0 300 0 0 299.99999999999994 0 0 300 0 0 300 0 0 300 0 0 300 0 0 300 0 0 300 0 0 300 0 0 300 0 0 300 0 0 300 0 0 299.99999999999994 0 0 299.99999999999994 0 0 300.00000000000006 0 0 300 0 0 299.99999999999994 0 0 300 0 0 300 0 0 300.00000000000006 0 0 300 0 0 300.00000000000006 0 0 300.00000000000006 0 0 300 0 0 299.99999999999994 0 0 300.00000000000006 0 0 300.00000000000006 0 0 300.00000000000006 0 0 300 0 0 300 0 0 300 0 0 300 0 0 300 0 0 300 0 0 300.00000000000006 0 0 299.99999999999994 0 0 300 0 0 300.00000000000006 0 0 300 0 0 300 0 0 299.99999999999994 0 0 300.00000000000006 0 0 300 0 0 300 0 0 300 0 0 300.00000000000006 0 0 300 0 0 300.00000000000006 0 0 300.00000000000006 0 0 299.99999999999994 0 0 300 0 0 300.00000000000006 0 0 300.00000000000006 0 0 300 0 0 300 0 0 300 0 0 300 0 0 300 0 0 300 0 0 300 0 0 300 0 0 300 0 0 300 0 0 300 0 0 299.99999999999994 0 0 300.00000000000006 0 0 300.00000000000006 0 0 300 0 0 300.00000000000006 0 0 299.99999999999994 0 0 300 0 0 299.99999999999994 0 0 300 0 0 300 0 0 300.00000000000006 0 0 300.00000000000006 0 0 300 0 0 299.99999999999994 0 0 300 0 0 300 0 0 300 0 0 300 0 0 300.00000000000006 0 0 300.00000000000006 0 0 300 0 0 300 0 0 300 0 0 300 0 0 299.99999999999994 0 0 300.00000000000006 0 0 299.99999999999994 0 0 299.99999999999994 0 0 300.00000000000006 0 0 300 0 0 300 0 0 300 0 0 299.99999999999994 0 0 299.99999999999994 0 0 300 0 0 300 0 0 300 0 0 300 0 0 300.00000000000006 0 0 300.00000000000006 0 0 300 0 0 300 0 0 300 0 0 300 0 0 300 0 0 300 0 0 300 0 0 300 0 0 300 0 0 300 0 0 300 0 0 300 0 0 300 0 0 300 0 0 300 0 0 299.99999999999994 0 0 300 0 0 299.99999999999994 0 0 300 0 0 300.00000000000006 0 0 300 0 0 299.99999999999994 0 0 299.99999999999994 0 0 300 0 0 300 0 0 299.99999999999994 0 0 300 0 0 300 0 0 299.99999999999994 0 0 300 0 0 300 0 0 299.99999999999994 0 0 300 0 0 300 0 0 300 0 0 300 0 0 299.99999999999994 0 0 300.00000000000006 0 0 300 0 0 300 0 0 300 0 0 300 0 0 300 0 0 299.99999999999994 0 0 300 0 0 300 0 0 300 0 0 300 0 0 299.99999999999994 0 0 299.99999999999994 0 0 300 0 0 300 0 0 299.99999999999994 0 0 300.00000000000006 0 0 299.99999999999994 0 0 300 0 0 300 0 0 300 0 0 300.00000000000006 0 0 300 0 0 300 0 0 300.00000000000006 0 0 300 0 0 300 0 0 299.99999999999994 0 0 300.00000000000006 0 0 300 0 0 300 0 0 299.99999999999994 0 0 300 0 0 300 0 0 300 0 0 300.00000000000006 0 0 300.00000000000006 0 0 300 0 0 300 0 0 300 0 0 300 0 0 300 0 0 300.00000000000006 0 0 300 0 0 299.99999999999994 0 0 299.99999999999994 0 0 300 0 0 300 0 0 300.00000000000006 0 0 300 0 0 300 0 0 300 0 0 300 0 0 300 0 0 300.00000000000006 0 0 299.99999999999994 0 0 300 0 0 299.99999999999994 0 0 300 0 0 299.99999999999994 0 0 299.99999999999994 0 0 300 0 0 300 0 0 300 0 0 300 0 0 300.00000000000006 0 0 300 0 0 300 0 0 300 0 0 300.00000000000006 0 0 300 0 0 300 0 0 300 0 0 300.00000000000006 0 0 300 0 0 300 0 0 300 0 0 300 0 0 300 0 0 300.00000000000006 0 0 300 0 0 300 0 0 300 0 0 300 0 0 300.00000000000006 0 0 300.00000000000006 0 0 300 0 0 300 0 0 300 0 0 299.99999999999994 0 0 300.00000000000006 0 0 300 0 0 300 0 0 300 0 0 300 0 0 300 0 0 300.00000000000006 0 0 299.99999999999994 0 0 299.99999999999994 0 0 299.99999999999994 0 0 300 0 0 300.00000000000006 0 0 300 0 0 299.99999999999994 0 0 299.99999999999994 0 0 300 0 0 300.00000000000006 0 0 300 0 0 300 0 0 300.00000000000006 0 0 300 0 0 300 0 0 300 0 0 300 0 0 300 0 0 300.0000000000